
#=======================================================================
data_global
#=======================================================================

_audit_creation_method                   'Jana2006 Version : 23/05/2019'

_journal_name_full                       'Acta Crystallographica Section C'
_publ_section_references
;
Petricek, V., Dusek, M. & Palatinus L. (2014). Z. Kristallogr. 229(5), 345-352.

Palatinus L. & Chapuis G. (2007). J. Appl. Cryst. 40, 786-790.
;
# 6. CRYSTAL DATA

_symmetry_cell_setting                   trigonal
_symmetry_space_group_name_H-M           'R 3 c'
_symmetry_space_group_name_Hall          'R 3;-2"c'
_symmetry_Int_Tables_number              161

loop_
 _space_group_symop_id
 _space_group_symop_operation_xyz
 1   x,y,z
 2   -y,x-y,z
 3   -x+y,-x,z
 4   -y,-x,z+1/2
 5   -x+y,y,z+1/2
 6   x,x-y,z+1/2
 7   x+2/3,y+1/3,z+1/3
 8   -y+2/3,x-y+1/3,z+1/3
 9   -x+y+2/3,-x+1/3,z+1/3
 10  -y+2/3,-x+1/3,z+5/6
 11  -x+y+2/3,y+1/3,z+5/6
 12  x+2/3,x-y+1/3,z+5/6
 13  x+1/3,y+2/3,z+2/3
 14  -y+1/3,x-y+2/3,z+2/3
 15  -x+y+1/3,-x+2/3,z+2/3
 16  -y+1/3,-x+2/3,z+1/6
 17  -x+y+1/3,y+2/3,z+1/6
 18  x+1/3,x-y+2/3,z+1/6

_cell_length_a                           12.984(4)
_cell_length_b                           12.984(4)
_cell_length_c                           6.243(8)
_cell_angle_alpha                        90
_cell_angle_beta                         90
_cell_angle_gamma                        120
_cell_volume                             911.5(12)

loop_
 _atom_site_label
 _atom_site_type_symbol
 _atom_site_fract_x
 _atom_site_fract_y
 _atom_site_fract_z
 _atom_site_adp_type
 _atom_site_U_iso_or_equiv
 _atom_site_site_symmetry_multiplicity
 _atom_site_occupancy
 _atom_site_calc_flag
 _atom_site_refinement_flags
 _atom_site_disorder_assembly
 _atom_site_disorder_group
  O1 O 0.2275(4) 0.1938(3) 0.154(4) Uani 0.0396(19) 18 1 d . . .
  O2 O 0.1931(3) 0.2280(4) 0.585(4) Uani 0.0392(18) 18 1 d . . .
  H1 H 0 0 0.329(5) Uiso 0.056(4) 6 2 d . . .
  H2 H 0.221(3) 0.173(4) 0.621(6) Uiso 0.056(4) 18 1 d . . .
  H3 H 0.300(4) 0.237(4) 0.093(6) Uiso 0.056(4) 18 1 d . . .
  H4 H 0.122(5) 0.211(4) 0.598(6) Uiso 0.056(4) 18 1 d . . .
  H5 H 0.227(4) 0.212(5) 0.275(8) Uiso 0.056(4) 18 1 d . . .

loop_
 _atom_site_aniso_label
 _atom_site_aniso_type_symbol
 _atom_site_aniso_U_11
 _atom_site_aniso_U_22
 _atom_site_aniso_U_33
 _atom_site_aniso_U_12
 _atom_site_aniso_U_13
 _atom_site_aniso_U_23
 O1 O 0.035(2) 0.044(3) 0.0356(15) 0.0176(19) 0.0031(11) -0.0005(11)
 O2 O 0.031(2) 0.040(3) 0.050(2) 0.0200(18) 0.0002(11) -0.0035(13)

loop_
 _jana_atom_site_ADP_C_label
 _jana_atom_site_ADP_C_type_symbol
 _jana_atom_site_ADP_C_111
 _jana_atom_site_ADP_C_112
 _jana_atom_site_ADP_C_113
 _jana_atom_site_ADP_C_122
 _jana_atom_site_ADP_C_123
 _jana_atom_site_ADP_C_133
 _jana_atom_site_ADP_C_222
 _jana_atom_site_ADP_C_223
 _jana_atom_site_ADP_C_233
 _jana_atom_site_ADP_C_333
 ? ? ? ? ? ? ? ? ? ? ? ?

